# vtk DataFile Version 5.1
vtk output
ASCII
DATASET POLYDATA
POINTS 3064 float
115.555 88.06 128.012 115.555 87.0409 129.031 114.357 88.06 129.031 
116.759 88.06 128.012 116.759 87.0409 129.031 117.957 88.06 129.031 
115.555 89.079 129.031 115.561 89.0839 129.031 116.759 89.0839 128.012 
117.963 88.0648 129.031 117.963 89.0839 128.012 119.161 89.0839 129.031 
78.2406 90.1079 128.012 78.2406 89.089 129.031 77.0429 90.1079 129.031 
79.4383 90.1079 129.031 116.759 90.103 129.031 116.765 90.1079 129.031 
117.963 90.1079 128.012 119.161 90.1079 129.031 78.2406 91.1267 129.031 
117.963 91.1269 129.031 79.4443 87.036 129.036 79.4443 86.0172 130.055 
78.2466 87.036 130.055 80.642 87.036 130.055 78.2406 88.06 129.036 
78.2406 87.0411 130.055 77.0429 88.06 130.055 79.4443 88.06 129.036 
80.648 87.0411 130.055 80.648 88.06 129.036 81.8457 88.06 130.055 
115.555 87.0409 130.055 114.357 88.06 130.055 116.759 87.0409 130.055 
117.963 88.06 129.036 117.963 87.0409 130.055 119.161 88.06 130.055 
77.0369 89.0839 129.036 77.0369 88.0651 130.055 75.8392 89.0839 130.055 
78.2406 89.0839 129.036 79.4443 89.0839 129.036 80.642 89.0839 130.055 
80.648 89.0788 130.055 115.555 89.0839 129.036 114.357 89.0839 130.055 
119.166 89.0839 129.036 119.166 88.0648 130.055 120.364 89.0839 130.055 
75.8332 90.1079 129.036 75.8332 89.089 130.055 74.6355 90.1079 130.055 
77.0369 90.1079 129.036 79.4443 90.1079 129.036 80.642 90.1079 130.055 
115.555 90.103 130.055 116.759 90.1079 129.036 115.561 90.1079 130.055 
119.166 90.1079 129.036 120.37 89.0888 130.055 120.37 90.1079 129.036 
121.568 90.1079 130.055 75.8332 91.1318 129.036 74.6355 91.1318 130.055 
77.0369 91.1318 129.036 78.2406 91.1318 129.036 79.4383 91.1318 130.055 
79.4443 91.1267 130.055 116.759 91.1318 129.036 115.561 91.1318 130.055 
117.963 91.1318 129.036 119.166 91.1318 129.036 120.37 91.1318 129.036 
121.568 91.1318 130.055 75.8332 92.1558 129.036 74.6355 92.1558 130.055 
77.0369 92.1558 129.036 78.2346 92.1558 130.055 78.2406 92.1507 130.055 
116.759 92.1509 130.055 117.963 92.1509 130.055 119.166 92.1509 130.055 
119.172 92.1558 130.055 120.37 92.1558 129.036 121.568 92.1558 130.055 
75.8332 93.1746 130.055 77.0369 93.1746 130.055 120.37 93.1748 130.055 
78.2406 87.036 130.06 78.2406 86.0172 131.079 77.0429 87.036 131.079 
79.4443 86.0172 131.079 80.642 87.036 131.079 77.0369 88.06 130.06 
77.0369 87.0411 131.079 75.8392 88.06 131.079 80.648 88.06 131.074 
80.642 88.06 131.079 115.555 88.06 131.074 116.759 88.06 131.074 
116.765 88.06 131.079 117.963 87.0409 131.079 119.166 88.06 130.06 
119.166 87.0409 131.079 120.364 88.06 131.079 75.8332 89.0839 130.06 
75.8332 88.0651 131.079 74.6355 89.0839 131.079 80.642 89.0839 131.079 
115.555 89.0839 131.074 115.561 89.0839 131.079 116.759 88.0648 131.079 
120.37 89.0839 130.06 120.37 88.0648 131.079 121.568 89.0839 131.079 
74.6295 90.1079 130.06 74.6295 89.089 131.079 73.4318 90.1079 131.079 
80.642 90.1079 131.079 115.561 90.1079 131.079 121.574 90.1079 130.06 
121.574 89.0888 131.079 122.772 90.1079 131.079 73.4258 91.1318 130.06 
73.4258 90.113 131.079 72.2281 91.1318 131.079 74.6295 91.1318 130.06 
79.4383 91.1318 131.079 79.4443 91.1267 131.079 115.561 91.1318 131.079 
121.574 91.1318 130.06 122.778 90.1127 131.079 122.778 91.1318 130.06 
123.975 91.1318 131.079 73.4258 92.1558 130.06 72.2281 92.1558 131.079 
74.6295 92.1558 130.06 78.2346 92.1558 131.079 78.2406 92.1507 131.079 
116.759 92.1509 131.079 117.963 92.1558 130.06 116.765 92.1558 131.079 
119.166 92.1558 130.06 121.574 92.1558 130.06 122.778 92.1558 130.06 
123.975 92.1558 131.079 73.4258 93.1797 130.06 72.2281 93.1797 131.079 
74.6295 93.1797 130.06 75.8332 93.1797 130.06 77.0369 93.1797 130.06 
78.2346 93.1797 131.079 117.963 93.1748 131.079 119.166 93.1748 131.079 
120.37 93.1797 130.06 119.172 93.1797 131.079 121.574 93.1797 130.06 
122.778 93.1797 130.06 123.975 93.1797 131.079 73.4258 94.1986 131.079 
74.6295 94.1986 131.079 75.8332 94.1986 131.079 77.0369 94.1986 131.079 
120.37 94.1988 131.079 121.574 94.1988 131.079 122.778 94.1988 131.079 
117.963 121.85 130.06 117.963 120.831 131.079 116.765 121.85 131.079 
119.166 121.85 130.06 119.166 120.831 131.079 120.37 121.85 130.06 
120.37 120.831 131.079 121.568 121.85 131.079 117.963 122.874 130.06 
116.765 122.874 131.079 119.166 122.874 130.06 120.364 122.874 131.079 
120.37 122.869 131.079 117.963 123.893 131.079 119.166 123.893 131.079 
77.0369 87.036 131.084 77.0369 86.0172 132.103 75.8392 87.036 132.103 
78.2406 86.0172 132.103 79.4443 87.036 132.098 79.4383 87.036 132.103 
75.8392 88.06 132.103 79.4443 88.06 132.098 79.4383 88.06 132.103 
117.963 88.06 132.098 119.166 88.06 132.098 74.6295 89.0839 131.084 
74.6295 88.0651 132.103 73.4318 89.0839 132.103 75.8332 88.0651 132.103 
79.4443 89.0839 132.098 79.4383 89.0839 132.103 116.759 89.0839 132.098 
117.963 89.0839 132.098 117.968 89.0839 132.103 119.166 88.0648 132.103 
120.37 88.0648 132.103 121.568 89.0839 132.103 73.4258 90.1079 131.084 
73.4258 89.089 132.103 72.2281 90.1079 132.103 79.4443 90.1079 132.098 
79.4383 90.1079 132.103 116.759 90.1079 132.098 116.765 90.1079 132.103 
117.963 89.0888 132.103 121.574 89.0888 132.103 122.772 90.1079 132.103 
72.2221 91.1318 131.084 72.2221 90.113 132.103 71.0244 91.1318 132.103 
78.2406 91.1318 132.098 78.2346 91.1318 132.103 78.2406 91.1267 132.103 
116.759 91.1318 132.098 117.963 91.1269 132.103 117.963 91.1318 132.098 
117.968 91.1318 132.103 122.778 90.1127 132.103 123.975 91.1318 132.103 
71.0184 92.1558 131.084 71.0184 91.1369 132.103 69.8207 92.1558 132.103 
72.2221 92.1558 131.084 78.2346 92.1558 132.103 117.963 92.1558 132.098 
117.968 92.1558 132.103 123.981 91.1367 132.103 123.981 92.1558 131.084 
125.179 92.1558 132.103 71.0184 93.1797 131.084 69.8207 93.1797 132.103 
72.2221 93.1797 131.084 78.2346 93.1797 132.103 117.963 92.1606 132.103 
116.765 93.1797 132.103 117.963 93.1797 131.084 119.166 93.1797 131.084 
123.981 93.1797 131.084 125.179 93.1797 132.103 71.0184 94.2037 131.084 
69.8207 94.2037 132.103 72.2221 94.2037 131.084 73.4258 94.2037 131.084 
74.6295 94.2037 131.084 75.8332 94.2037 131.084 77.0369 94.2037 131.084 
78.2346 94.2037 132.103 117.963 94.1988 132.103 117.968 94.2037 132.103 
119.166 94.2037 131.084 120.37 94.1988 132.103 120.364 94.2037 132.103 
121.574 94.2037 131.084 120.376 94.2037 132.103 122.778 94.2037 131.084 
123.981 94.2037 131.084 125.179 94.2037 132.103 71.0184 95.2225 132.103 
71.0244 95.2276 132.103 72.2221 95.2276 131.084 73.4258 95.2276 131.084 
74.6234 95.2276 132.103 74.6295 95.2225 132.103 75.8332 95.2225 132.103 
77.0369 95.2225 132.103 119.166 95.2227 132.103 121.574 95.2227 132.103 
122.778 95.2227 132.103 123.981 95.2227 132.103 72.2221 96.2465 132.103 
73.4258 96.2465 132.103 117.963 119.802 131.084 117.963 118.783 132.103 
116.765 119.802 132.103 119.166 119.802 131.084 119.166 118.783 132.103 
120.37 119.802 131.084 120.37 118.783 132.103 121.568 119.802 132.103 
74.6295 120.826 131.084 74.6295 119.808 132.103 73.4318 120.826 132.103 
75.8271 120.826 132.103 116.759 120.826 131.084 116.759 119.807 132.103 
115.561 120.826 132.103 117.963 120.826 131.084 119.166 120.826 131.084 
120.37 120.826 131.084 121.568 120.826 132.103 74.6295 121.845 132.103 
75.8332 120.832 132.103 74.6355 121.85 132.103 75.8332 121.85 131.084 
77.0308 121.85 132.103 116.759 121.85 131.084 115.561 121.85 132.103 
121.568 121.85 132.103 75.8332 122.869 132.103 116.759 122.874 131.084 
115.561 122.874 132.103 120.364 122.874 132.103 120.37 122.869 132.103 
116.759 123.893 132.103 117.963 123.893 132.103 119.166 123.893 132.103 
77.0369 87.036 133.122 78.2406 87.036 133.122 75.8332 88.06 132.108 
75.8332 87.0411 133.127 74.6355 88.06 133.127 77.0369 87.0411 133.127 
78.2406 88.06 133.122 78.2346 88.06 133.127 74.6295 88.0651 133.127 
73.4318 89.0839 133.127 78.2406 88.0651 133.127 79.4383 89.0839 133.127 
119.166 88.0648 133.127 117.968 89.0839 133.127 120.37 88.0648 133.127 
121.568 89.0839 133.127 72.2221 90.1079 132.108 72.2221 89.089 133.127 
71.0244 90.1079 133.127 73.4258 89.089 133.127 78.2406 90.1079 133.122 
78.2346 90.1079 133.127 78.2406 90.1027 133.127 117.963 90.1079 133.123 
117.968 90.1079 133.127 121.574 89.0888 133.127 122.778 90.1079 132.108 
122.778 89.0888 133.127 123.975 90.1079 133.127 71.0184 91.1318 132.108 
71.0184 90.113 133.127 69.8207 91.1318 133.127 78.2346 91.1318 133.127 
119.166 91.1269 133.127 119.166 91.1318 133.123 119.172 91.1318 133.127 
123.981 91.1318 132.108 123.981 90.1127 133.127 125.179 91.1318 133.127 
69.8207 92.1558 133.127 78.2346 92.1558 133.127 119.166 92.1558 133.123 
119.172 92.1558 133.127 125.179 92.1558 133.127 69.8147 93.1797 132.108 
69.8147 92.1609 133.127 68.617 93.1797 133.127 78.2346 93.1797 133.127 
117.963 93.1797 133.123 119.166 93.1797 133.123 119.172 93.1797 133.127 
125.185 92.1606 133.127 125.185 93.1797 132.108 126.383 93.1797 133.127 
69.8147 94.2037 132.108 68.617 94.2037 133.127 78.2346 94.2037 133.127 
119.166 94.2037 133.123 119.172 94.2037 133.127 120.37 94.2037 132.108 
125.185 94.2037 132.108 126.389 93.1846 133.127 126.389 94.2037 132.108 
127.587 94.2037 133.127 69.8147 95.2276 132.108 68.617 95.2276 133.127 
71.0184 95.2276 132.108 74.6295 95.2276 132.108 75.8332 95.2276 132.108 
77.0308 95.2276 133.127 77.0369 95.2225 133.127 119.166 94.2085 133.127 
117.968 95.2276 133.127 119.166 95.2276 132.108 120.37 95.2276 132.108 
121.574 95.2276 132.108 122.778 95.2276 132.108 123.981 95.2276 132.108 
125.185 95.2276 132.108 126.389 95.2276 132.108 127.587 95.2276 133.127 
69.8147 96.2516 132.108 68.617 96.2516 133.127 71.0184 96.2516 132.108 
72.2221 96.2516 132.108 73.4258 96.2516 132.108 74.6295 96.2516 132.108 
75.8332 96.2516 132.108 77.0308 96.2516 133.127 119.166 96.2467 133.127 
119.172 96.2516 133.127 120.37 96.2516 132.108 121.574 96.2516 132.108 
122.772 96.2516 133.127 122.778 96.2467 133.127 122.783 96.2516 133.127 
123.981 96.2516 132.108 125.185 96.2516 132.108 126.389 96.2516 132.108 
[...]
POINT_DATA 3064
SCALARS scalars float
LOOKUP_TABLE default
0.1 0.1 0.1 0.1 0.1 0.1 0.1 0.1 0.1 
0.1 0.1 0.1 0.1 0.1 0.1 0.1 0.1 0.1 
0.1 0.1 0.1 0.1 0.1 0.1 0.1 0.1 0.1 
0.1 0.1 0.1 0.1 0.1 0.1 0.1 0.1 0.1 
0.1 0.1 0.1 0.1 0.1 0.1 0.1 0.1 0.1 
0.1 0.1 0.1 0.1 0.1 0.1 0.1 0.1 0.1 
0.1 0.1 0.1 0.1 0.1 0.1 0.1 0.1 0.1 
0.1 0.1 0.1 0.1 0.1 0.1 0.1 0.1 0.1 
0.1 0.1 0.1 0.1 0.1 0.1 0.1 0.1 0.1 
0.1 0.1 0.1 0.1 0.1 0.1 0.1 0.1 0.1 
0.1 0.1 0.1 0.1 0.1 0.1 0.1 0.1 0.1 
0.1 0.1 0.1 0.1 0.1 0.1 0.1 0.1 0.1 
0.1 0.1 0.1 0.1 0.1 0.1 0.1 0.1 0.1 
0.1 0.1 0.1 0.1 0.1 0.1 0.1 0.1 0.1 
0.1 0.1 0.1 0.1 0.1 0.1 0.1 0.1 0.1 
0.1 0.1 0.1 0.1 0.1 0.1 0.1 0.1 0.1 
0.1 0.1 0.1 0.1 0.1 0.1 0.1 0.1 0.1 
0.1 0.1 0.1 0.1 0.1 0.1 0.1 0.1 0.1 
0.1 0.1 0.1 0.1 0.1 0.1 0.1 0.1 0.1 
0.1 0.1 0.1 0.1 0.1 0.1 0.1 0.1 0.1 
0.1 0.1 0.1 0.1 0.1 0.1 0.1 0.1 0.1 
0.1 0.1 0.1 0.1 0.1 0.1 0.1 0.1 0.1 
0.1 0.1 0.1 0.1 0.1 0.1 0.1 0.1 0.1 
0.1 0.1 0.1 0.1 0.1 0.1 0.1 0.1 0.1 
0.1 0.1 0.1 0.1 0.1 0.1 0.1 0.1 0.1 
0.1 0.1 0.1 0.1 0.1 0.1 0.1 0.1 0.1 
0.1 0.1 0.1 0.1 0.1 0.1 0.1 0.1 0.1 
0.1 0.1 0.1 0.1 0.1 0.1 0.1 0.1 0.1 
0.1 0.1 0.1 0.1 0.1 0.1 0.1 0.1 0.1 
0.1 0.1 0.1 0.1 0.1 0.1 0.1 0.1 0.1 
0.1 0.1 0.1 0.1 0.1 0.1 0.1 0.1 0.1 
0.1 0.1 0.1 0.1 0.1 0.1 0.1 0.1 0.1 
0.1 0.1 0.1 0.1 0.1 0.1 0.1 0.1 0.1 
0.1 0.1 0.1 0.1 0.1 0.1 0.1 0.1 0.1 
0.1 0.1 0.1 0.1 0.1 0.1 0.1 0.1 0.1 
0.1 0.1 0.1 0.1 0.1 0.1 0.1 0.1 0.1 
0.1 0.1 0.1 0.1 0.1 0.1 0.1 0.1 0.1 
0.1 0.1 0.1 0.1 0.1 0.1 0.1 0.1 0.1 
0.1 0.1 0.1 0.1 0.1 0.1 0.1 0.1 0.1 
0.1 0.1 0.1 0.1 0.1 0.1 0.1 0.1 0.1 
0.1 0.1 0.1 0.1 0.1 0.1 0.1 0.1 0.1 
0.1 0.1 0.1 0.1 0.1 0.1 0.1 0.1 0.1 
0.1 0.1 0.1 0.1 0.1 0.1 0.1 0.1 0.1 
0.1 0.1 0.1 0.1 0.1 0.1 0.1 0.1 0.1 
0.1 0.1 0.1 0.1 0.1 0.1 0.1 0.1 0.1 
0.1 0.1 0.1 0.1 0.1 0.1 0.1 0.1 0.1 
0.1 0.1 0.1 0.1 0.1 0.1 0.1 0.1 0.1 
0.1 0.1 0.1 0.1 0.1 0.1 0.1 0.1 0.1 
0.1 0.1 0.1 0.1 0.1 0.1 0.1 0.1 0.1 
0.1 0.1 0.1 0.1 0.1 0.1 0.1 0.1 0.1 
0.1 0.1 0.1 0.1 0.1 0.1 0.1 0.1 0.1 
0.1 0.1 0.1 0.1 0.1 0.1 0.1 0.1 0.1 
0.1 0.1 0.1 0.1 0.1 0.1 0.1 0.1 0.1 
0.1 0.1 0.1 0.1 0.1 0.1 0.1 0.1 0.1 
0.1 0.1 0.1 0.1 0.1 0.1 0.1 0.1 0.1 
0.1 0.1 0.1 0.1 0.1 0.1 0.1 0.1 0.1 
0.1 0.1 0.1 0.1 0.1 0.1 0.1 0.1 0.1 
0.1 0.1 0.1 0.1 0.1 0.1 0.1 0.1 0.1 
0.1 0.1 0.1 0.1 0.1 0.1 0.1 0.1 0.1 
0.1 0.1 0.1 0.1 0.1 0.1 0.1 0.1 0.1 
0.1 0.1 0.1 0.1 0.1 0.1 0.1 0.1 0.1 
0.1 0.1 0.1 0.1 0.1 0.1 0.1 0.1 0.1 
0.1 0.1 0.1 0.1 0.1 0.1 0.1 0.1 0.1 
0.1 0.1 0.1 0.1 0.1 0.1 0.1 0.1 0.1 
0.1 0.1 0.1 0.1 0.1 0.1 0.1 0.1 0.1 
0.1 0.1 0.1 0.1 0.1 0.1 0.1 0.1 0.1 
0.1 0.1 0.1 0.1 0.1 0.1 0.1 0.1 0.1 
0.1 0.1 0.1 0.1 0.1 0.1 0.1 0.1 0.1 
0.1 0.1 0.1 0.1 0.1 0.1 0.1 0.1 0.1 
0.1 0.1 0.1 0.1 0.1 0.1 0.1 0.1 0.1 
0.1 0.1 0.1 0.1 0.1 0.1 0.1 0.1 0.1 
0.1 0.1 0.1 0.1 0.1 0.1 0.1 0.1 0.1 
0.1 0.1 0.1 0.1 0.1 0.1 0.1 0.1 0.1 
0.1 0.1 0.1 0.1 0.1 0.1 0.1 0.1 0.1 
0.1 0.1 0.1 0.1 0.1 0.1 0.1 0.1 0.1 
0.1 0.1 0.1 0.1 0.1 0.1 0.1 0.1 0.1 
0.1 0.1 0.1 0.1 0.1 0.1 0.1 0.1 0.1 
0.1 0.1 0.1 0.1 0.1 0.1 0.1 0.1 0.1 
0.1 0.1 0.1 0.1 0.1 0.1 0.1 0.1 0.1 
0.1 0.1 0.1 0.1 0.1 0.1 0.1 0.1 0.1 
0.1 0.1 0.1 0.1 0.1 0.1 0.1 0.1 0.1 
0.1 0.1 0.1 0.1 0.1 0.1 0.1 0.1 0.1 
0.1 0.1 0.1 0.1 0.1 0.1 0.1 0.1 0.1 
0.1 0.1 0.1 0.1 0.1 0.1 0.1 0.1 0.1 
0.1 0.1 0.1 0.1 0.1 0.1 0.1 0.1 0.1 
0.1 0.1 0.1 0.1 0.1 0.1 0.1 0.1 0.1 
0.1 0.1 0.1 0.1 0.1 0.1 0.1 0.1 0.1 
0.1 0.1 0.1 0.1 0.1 0.1 0.1 0.1 0.1 
0.1 0.1 0.1 0.1 0.1 0.1 0.1 0.1 0.1 
0.1 0.1 0.1 0.1 0.1 0.1 0.1 0.1 0.1 
0.1 0.1 0.1 0.1 0.1 0.1 0.1 0.1 0.1 
0.1 0.1 0.1 0.1 0.1 0.1 0.1 0.1 0.1 
0.1 0.1 0.1 0.1 0.1 0.1 0.1 0.1 0.1 
0.1 0.1 0.1 0.1 0.1 0.1 0.1 0.1 0.1 
0.1 0.1 0.1 0.1 0.1 0.1 0.1 0.1 0.1 
0.1 0.1 0.1 0.1 0.1 0.1 0.1 0.1 0.1 
0.1 0.1 0.1 0.1 0.1 0.1 0.1 0.1 0.1 
0.1 0.1 0.1 0.1 0.1 0.1 0.1 0.1 0.1 
0.1 0.1 0.1 0.1 0.1 0.1 0.1 0.1 0.1 
0.1 0.1 0.1 0.1 0.1 0.1 0.1 0.1 0.1 
0.1 0.1 0.1 0.1 0.1 0.1 0.1 0.1 0.1 
0.1 0.1 0.1 0.1 0.1 0.1 0.1 0.1 0.1 
0.1 0.1 0.1 0.1 0.1 0.1 0.1 0.1 0.1 
0.1 0.1 0.1 0.1 0.1 0.1 0.1 0.1 0.1 
0.1 0.1 0.1 0.1 0.1 0.1 0.1 0.1 0.1 
0.1 0.1 0.1 0.1 0.1 0.1 0.1 0.1 0.1 
0.1 0.1 0.1 0.1 0.1 0.1 0.1 0.1 0.1 
0.1 0.1 0.1 0.1 0.1 0.1 0.1 0.1 0.1 
0.1 0.1 0.1 0.1 0.1 0.1 0.1 0.1 0.1 
0.1 0.1 0.1 0.1 0.1 0.1 0.1 0.1 0.1 
0.1 0.1 0.1 0.1 0.1 0.1 0.1 0.1 0.1 
0.1 0.1 0.1 0.1 0.1 0.1 0.1 0.1 0.1 
0.1 0.1 0.1 0.1 0.1 0.1 0.1 0.1 0.1 
0.1 0.1 0.1 0.1 0.1 0.1 0.1 0.1 0.1 
0.1 0.1 0.1 0.1 0.1 0.1 0.1 0.1 0.1 
0.1 0.1 0.1 0.1 0.1 0.1 0.1 0.1 0.1 
0.1 0.1 0.1 0.1 0.1 0.1 0.1 0.1 0.1 
0.1 0.1 0.1 0.1 0.1 0.1 0.1 0.1 0.1 
0.1 0.1 0.1 0.1 0.1 0.1 0.1 0.1 0.1 
0.1 0.1 0.1 0.1 0.1 0.1 0.1 0.1 0.1 
0.1 0.1 0.1 0.1 0.1 0.1 0.1 0.1 0.1 
0.1 0.1 0.1 0.1 0.1 0.1 0.1 0.1 0.1 
0.1 0.1 0.1 0.1 0.1 0.1 0.1 0.1 0.1 
0.1 0.1 0.1 0.1 0.1 0.1 0.1 0.1 0.1 
0.1 0.1 0.1 0.1 0.1 0.1 0.1 0.1 0.1 
0.1 0.1 0.1 0.1 0.1 0.1 0.1 0.1 0.1 
0.1 0.1 0.1 0.1 0.1 0.1 0.1 0.1 0.1 
0.1 0.1 0.1 0.1 0.1 0.1 0.1 0.1 0.1 
0.1 0.1 0.1 0.1 0.1 0.1 0.1 0.1 0.1 
0.1 0.1 0.1 0.1 0.1 0.1 0.1 0.1 0.1 
0.1 0.1 0.1 0.1 0.1 0.1 0.1 0.1 0.1 
0.1 0.1 0.1 0.1 0.1 0.1 0.1 0.1 0.1 
0.1 0.1 0.1 0.1 0.1 0.1 0.1 0.1 0.1 
0.1 0.1 0.1 0.1 0.1 0.1 0.1 0.1 0.1 
0.1 0.1 0.1 0.1 0.1 0.1 0.1 0.1 0.1 
0.1 0.1 0.1 0.1 0.1 0.1 0.1 0.1 0.1 
0.1 0.1 0.1 0.1 0.1 0.1 0.1 0.1 0.1 
0.1 0.1 0.1 0.1 0.1 0.1 0.1 0.1 0.1 
0.1 0.1 0.1 0.1 0.1 0.1 0.1 0.1 0.1 
0.1 0.1 0.1 0.1 0.1 0.1 0.1 0.1 0.1 
0.1 0.1 0.1 0.1 0.1 0.1 0.1 0.1 0.1 
0.1 0.1 0.1 0.1 0.1 0.1 0.1 0.1 0.1 
0.1 0.1 0.1 0.1 0.1 0.1 0.1 0.1 0.1 
0.1 0.1 0.1 0.1 0.1 0.1 0.1 0.1 0.1 
0.1 0.1 0.1 0.1 0.1 0.1 0.1 0.1 0.1 
0.1 0.1 0.1 0.1 0.1 0.1 0.1 0.1 0.1 
0.1 0.1 0.1 0.1 0.1 0.1 0.1 0.1 0.1 
0.1 0.1 0.1 0.1 0.1 0.1 0.1 0.1 0.1 
0.1 0.1 0.1 0.1 0.1 0.1 0.1 0.1 0.1 
0.1 0.1 0.1 0.1 0.1 0.1 0.1 0.1 0.1 
0.1 0.1 0.1 0.1 0.1 0.1 0.1 0.1 0.1 
0.1 0.1 0.1 0.1 0.1 0.1 0.1 0.1 0.1 
0.1 0.1 0.1 0.1 0.1 0.1 0.1 0.1 0.1 
0.1 0.1 0.1 0.1 0.1 0.1 0.1 0.1 0.1 
0.1 0.1 0.1 0.1 0.1 0.1 0.1 0.1 0.1 
0.1 0.1 0.1 0.1 0.1 0.1 0.1 0.1 0.1 
0.1 0.1 0.1 0.1 0.1 0.1 0.1 0.1 0.1 
0.1 0.1 0.1 0.1 0.1 0.1 0.1 0.1 0.1 
0.1 0.1 0.1 0.1 0.1 0.1 0.1 0.1 0.1 
0.1 0.1 0.1 0.1 0.1 0.1 0.1 0.1 0.1 
0.1 0.1 0.1 0.1 0.1 0.1 0.1 0.1 0.1 
0.1 0.1 0.1 0.1 0.1 0.1 0.1 0.1 0.1 
0.1 0.1 0.1 0.1 0.1 0.1 0.1 0.1 0.1 
0.1 0.1 0.1 0.1 0.1 0.1 0.1 0.1 0.1 
0.1 0.1 0.1 0.1 0.1 0.1 0.1 0.1 0.1 
0.1 0.1 0.1 0.1 0.1 0.1 0.1 0.1 0.1 
0.1 0.1 0.1 0.1 0.1 0.1 0.1 0.1 0.1 
0.1 0.1 0.1 0.1 0.1 0.1 0.1 0.1 0.1 
0.1 0.1 0.1 0.1 0.1 0.1 0.1 0.1 0.1 
0.1 0.1 0.1 0.1 0.1 0.1 0.1 0.1 0.1 
0.1 0.1 0.1 0.1 0.1 0.1 0.1 0.1 0.1 
0.1 0.1 0.1 0.1 0.1 0.1 0.1 0.1 0.1 
0.1 0.1 0.1 0.1 0.1 0.1 0.1 0.1 0.1 
0.1 0.1 0.1 0.1 0.1 0.1 0.1 0.1 0.1 
0.1 0.1 0.1 0.1 0.1 0.1 0.1 0.1 0.1 
0.1 0.1 0.1 0.1 0.1 0.1 0.1 0.1 0.1 
0.1 0.1 0.1 0.1 0.1 0.1 0.1 0.1 0.1 
0.1 0.1 0.1 0.1 0.1 0.1 0.1 0.1 0.1 
0.1 0.1 0.1 0.1 0.1 0.1 0.1 0.1 0.1 
0.1 0.1 0.1 0.1 0.1 0.1 0.1 0.1 0.1 
0.1 0.1 0.1 0.1 0.1 0.1 0.1 0.1 0.1 
0.1 0.1 0.1 0.1 0.1 0.1 0.1 0.1 0.1 
0.1 0.1 0.1 0.1 0.1 0.1 0.1 0.1 0.1 
0.1 0.1 0.1 0.1 0.1 0.1 0.1 0.1 0.1 
0.1 0.1 0.1 0.1 0.1 0.1 0.1 0.1 0.1 
0.1 0.1 0.1 0.1 0.1 0.1 0.1 0.1 0.1 
0.1 0.1 0.1 0.1 0.1 0.1 0.1 0.1 0.1 
0.1 0.1 0.1 0.1 0.1 0.1 0.1 0.1 0.1 
0.1 0.1 0.1 0.1 0.1 0.1 0.1 0.1 0.1 
0.1 0.1 0.1 0.1 0.1 0.1 0.1 0.1 0.1 
0.1 0.1 0.1 0.1 0.1 0.1 0.1 0.1 0.1 
0.1 0.1 0.1 0.1 0.1 0.1 0.1 0.1 0.1 
0.1 0.1 0.1 0.1 0.1 0.1 0.1 0.1 0.1 
0.1 0.1 0.1 0.1 0.1 0.1 0.1 0.1 0.1 
0.1 0.1 0.1 0.1 0.1 0.1 0.1 0.1 0.1 
0.1 0.1 0.1 0.1 0.1 0.1 0.1 0.1 0.1 
0.1 0.1 0.1 0.1 0.1 0.1 0.1 0.1 0.1 
0.1 0.1 0.1 0.1 0.1 0.1 0.1 0.1 0.1 
0.1 0.1 0.1 0.1 0.1 0.1 0.1 0.1 0.1 
0.1 0.1 0.1 0.1 0.1 0.1 0.1 0.1 0.1 
0.1 0.1 0.1 0.1 0.1 0.1 0.1 0.1 0.1 
0.1 0.1 0.1 0.1 0.1 0.1 0.1 0.1 0.1 
0.1 0.1 0.1 0.1 0.1 0.1 0.1 0.1 0.1 
0.1 0.1 0.1 0.1 0.1 0.1 0.1 0.1 0.1 
0.1 0.1 0.1 0.1 0.1 0.1 0.1 0.1 0.1 
0.1 0.1 0.1 0.1 0.1 0.1 0.1 0.1 0.1 
0.1 0.1 0.1 0.1 0.1 0.1 0.1 0.1 0.1 
0.1 0.1 0.1 0.1 0.1 0.1 0.1 0.1 0.1 
0.1 0.1 0.1 0.1 0.1 0.1 0.1 0.1 0.1 
0.1 0.1 0.1 0.1 0.1 0.1 0.1 0.1 0.1 
0.1 0.1 0.1 0.1 0.1 0.1 0.1 0.1 0.1 
0.1 0.1 0.1 0.1 0.1 0.1 0.1 0.1 0.1 
0.1 0.1 0.1 0.1 0.1 0.1 0.1 0.1 0.1 
0.1 0.1 0.1 0.1 0.1 0.1 0.1 0.1 0.1 
0.1 0.1 0.1 0.1 0.1 0.1 0.1 0.1 0.1 
0.1 0.1 0.1 0.1 0.1 0.1 0.1 0.1 0.1 
0.1 0.1 0.1 0.1 0.1 0.1 0.1 0.1 0.1 
0.1 0.1 0.1 0.1 0.1 0.1 0.1 0.1 0.1 
0.1 0.1 0.1 0.1 0.1 0.1 0.1 0.1 0.1 
0.1 0.1 0.1 0.1 0.1 0.1 0.1 0.1 0.1 
0.1 0.1 0.1 0.1 0.1 0.1 0.1 0.1 0.1 
0.1 0.1 0.1 0.1 0.1 0.1 0.1 0.1 0.1 
0.1 0.1 0.1 0.1 0.1 0.1 0.1 0.1 0.1 
0.1 0.1 0.1 0.1 0.1 0.1 0.1 0.1 0.1 
0.1 0.1 0.1 0.1 0.1 0.1 0.1 0.1 0.1 
0.1 0.1 0.1 0.1 0.1 0.1 0.1 0.1 0.1 
0.1 0.1 0.1 0.1 0.1 0.1 0.1 0.1 0.1 
0.1 0.1 0.1 0.1 0.1 0.1 0.1 0.1 0.1 
0.1 0.1 0.1 0.1 0.1 0.1 0.1 0.1 0.1 
0.1 0.1 0.1 0.1 0.1 0.1 0.1 0.1 0.1 
0.1 0.1 0.1 0.1 0.1 0.1 0.1 0.1 0.1 
0.1 0.1 0.1 0.1 0.1 0.1 0.1 0.1 0.1 
0.1 0.1 0.1 0.1 0.1 0.1 0.1 0.1 0.1 
0.1 0.1 0.1 0.1 0.1 0.1 0.1 0.1 0.1 
0.1 0.1 0.1 0.1 0.1 0.1 0.1 0.1 0.1 
0.1 0.1 0.1 0.1 0.1 0.1 0.1 0.1 0.1 
0.1 0.1 0.1 0.1 0.1 0.1 0.1 0.1 0.1 
0.1 0.1 0.1 0.1 0.1 0.1 0.1 0.1 0.1 
0.1 0.1 0.1 0.1 0.1 0.1 0.1 0.1 0.1 
0.1 0.1 0.1 0.1 0.1 0.1 0.1 0.1 0.1 
0.1 0.1 0.1 0.1 0.1 0.1 0.1 0.1 0.1 
0.1 0.1 0.1 0.1 0.1 0.1 0.1 0.1 0.1 
0.1 0.1 0.1 0.1 0.1 0.1 0.1 0.1 0.1 
0.1 0.1 0.1 0.1 0.1 0.1 0.1 0.1 0.1 
0.1 0.1 0.1 0.1 0.1 0.1 0.1 0.1 0.1 
0.1 0.1 0.1 0.1 0.1 0.1 0.1 0.1 0.1 
0.1 0.1 0.1 0.1 0.1 0.1 0.1 0.1 0.1 
0.1 0.1 0.1 0.1 0.1 0.1 0.1 0.1 0.1 
0.1 0.1 0.1 0.1 0.1 0.1 0.1 0.1 0.1 
0.1 0.1 0.1 0.1 0.1 0.1 0.1 0.1 0.1 
0.1 0.1 0.1 0.1 0.1 0.1 0.1 0.1 0.1 
0.1 0.1 0.1 0.1 0.1 0.1 0.1 0.1 0.1 
0.1 0.1 0.1 0.1 0.1 0.1 0.1 0.1 0.1 
0.1 0.1 0.1 0.1 0.1 0.1 0.1 0.1 0.1 
0.1 0.1 0.1 0.1 0.1 0.1 0.1 0.1 0.1 
0.1 0.1 0.1 0.1 0.1 0.1 0.1 0.1 0.1 
0.1 0.1 0.1 0.1 0.1 0.1 0.1 0.1 0.1 
0.1 0.1 0.1 0.1 0.1 0.1 0.1 0.1 0.1 
0.1 0.1 0.1 0.1 0.1 0.1 0.1 0.1 0.1 
0.1 0.1 0.1 0.1 0.1 0.1 0.1 0.1 0.1 
0.1 0.1 0.1 0.1 0.1 0.1 0.1 0.1 0.1 
0.1 0.1 0.1 0.1 0.1 0.1 0.1 0.1 0.1 
0.1 0.1 0.1 0.1 0.1 0.1 0.1 0.1 0.1 
0.1 0.1 0.1 0.1 0.1 0.1 0.1 0.1 0.1 
0.1 0.1 0.1 0.1 0.1 0.1 0.1 0.1 0.1 
0.1 0.1 0.1 0.1 0.1 0.1 0.1 0.1 0.1 
0.1 0.1 0.1 0.1 0.1 0.1 0.1 0.1 0.1 
0.1 0.1 0.1 0.1 0.1 0.1 0.1 0.1 0.1 
0.1 0.1 0.1 0.1 0.1 0.1 0.1 0.1 0.1 
0.1 0.1 0.1 0.1 0.1 0.1 0.1 0.1 0.1 
0.1 0.1 0.1 0.1 0.1 0.1 0.1 0.1 0.1 
0.1 0.1 0.1 0.1 0.1 0.1 0.1 0.1 0.1 
0.1 0.1 0.1 0.1 0.1 0.1 0.1 0.1 0.1 
0.1 0.1 0.1 0.1 0.1 0.1 0.1 0.1 0.1 
0.1 0.1 0.1 0.1 0.1 0.1 0.1 0.1 0.1 
0.1 0.1 0.1 0.1 0.1 0.1 0.1 0.1 0.1 
0.1 0.1 0.1 0.1 0.1 0.1 0.1 0.1 0.1 
0.1 0.1 0.1 0.1 0.1 0.1 0.1 0.1 0.1 
0.1 0.1 0.1 0.1 0.1 0.1 0.1 0.1 0.1 
0.1 0.1 0.1 0.1 0.1 0.1 0.1 0.1 0.1 
0.1 0.1 0.1 0.1 0.1 0.1 0.1 0.1 0.1 
0.1 0.1 0.1 0.1 0.1 0.1 0.1 0.1 0.1 
0.1 0.1 0.1 0.1 0.1 0.1 0.1 0.1 0.1 
0.1 0.1 0.1 0.1 0.1 0.1 0.1 0.1 0.1 
0.1 0.1 0.1 0.1 0.1 0.1 0.1 0.1 0.1 
0.1 0.1 0.1 0.1 0.1 0.1 0.1 0.1 0.1 
0.1 0.1 0.1 0.1 0.1 0.1 0.1 0.1 0.1 
0.1 0.1 0.1 0.1 0.1 0.1 0.1 0.1 0.1 
0.1 0.1 0.1 0.1 0.1 0.1 0.1 0.1 0.1 
0.1 0.1 0.1 0.1 0.1 0.1 0.1 0.1 0.1 
0.1 0.1 0.1 0.1 0.1 0.1 0.1 0.1 0.1 
0.1 0.1 0.1 0.1 0.1 0.1 0.1 0.1 0.1 
0.1 0.1 0.1 0.1 0.1 0.1 0.1 0.1 0.1 
0.1 0.1 0.1 0.1 0.1 0.1 0.1 0.1 0.1 
0.1 0.1 0.1 0.1 0.1 0.1 0.1 0.1 0.1 
0.1 0.1 0.1 0.1 0.1 0.1 0.1 0.1 0.1 
0.1 0.1 0.1 0.1 0.1 0.1 0.1 0.1 0.1 
0.1 0.1 0.1 0.1 0.1 0.1 0.1 0.1 0.1 
0.1 0.1 0.1 0.1 0.1 0.1 0.1 0.1 0.1 
0.1 0.1 0.1 0.1 0.1 0.1 0.1 0.1 0.1 
0.1 0.1 0.1 0.1 0.1 0.1 0.1 0.1 0.1 
0.1 0.1 0.1 0.1 0.1 0.1 0.1 0.1 0.1 
0.1 0.1 0.1 0.1 0.1 0.1 0.1 0.1 0.1 
0.1 0.1 0.1 0.1 0.1 0.1 0.1 0.1 0.1 
0.1 0.1 0.1 0.1 0.1 0.1 0.1 0.1 0.1 
0.1 0.1 0.1 0.1 0.1 0.1 0.1 0.1 0.1 
0.1 0.1 0.1 0.1 0.1 0.1 0.1 0.1 0.1 
0.1 0.1 0.1 0.1 0.1 0.1 0.1 0.1 0.1 
0.1 0.1 0.1 0.1 0.1 0.1 0.1 0.1 0.1 
0.1 0.1 0.1 0.1 0.1 0.1 0.1 0.1 0.1 
0.1 0.1 0.1 0.1 0.1 0.1 0.1 0.1 0.1 
0.1 0.1 0.1 0.1 0.1 0.1 0.1 0.1 0.1 
0.1 0.1 0.1 0.1 0.1 0.1 0.1 0.1 0.1 
0.1 0.1 0.1 0.1 0.1 0.1 0.1 0.1 0.1 
0.1 0.1 0.1 0.1 0.1 0.1 0.1 0.1 0.1 
0.1 0.1 0.1 0.1 0.1 0.1 0.1 0.1 0.1 
0.1 0.1 0.1 0.1 0.1 0.1 0.1 0.1 0.1 
0.1 0.1 0.1 0.1 0.1 0.1 0.1 0.1 0.1 
0.1 0.1 0.1 0.1 0.1 0.1 0.1 0.1 0.1 
0.1 0.1 0.1 0.1 0.1 0.1 0.1 0.1 0.1 
0.1 0.1 0.1 0.1 0.1 0.1 0.1 0.1 0.1 
0.1 0.1 0.1 0.1 0.1 0.1 0.1 0.1 0.1 
0.1 0.1 0.1 0.1 0.1 0.1 0.1 0.1 0.1 
0.1 0.1 0.1 0.1 0.1 0.1 0.1 0.1 0.1 
0.1 0.1 0.1 0.1 0.1 0.1 0.1 0.1 0.1 
0.1 0.1 0.1 0.1 0.1 0.1 0.1 0.1 0.1 
0.1 0.1 0.1 0.1 0.1 0.1 0.1 0.1 0.1 
0.1 0.1 0.1 0.1 0.1 0.1 0.1 0.1 0.1 
0.1 0.1 0.1 0.1 0.1 0.1 0.1 0.1 0.1 
0.1 0.1 0.1 0.1 0.1 0.1 0.1 0.1 0.1 
0.1 0.1 0.1 0.1 0.1 0.1 0.1 0.1 0.1 
0.1 0.1 0.1 0.1 0.1 0.1 0.1 0.1 0.1 
0.1 0.1 0.1 0.1 0.1 0.1 0.1 0.1 0.1 
0.1 0.1 0.1 0.1 0.1 0.1 0.1 0.1 0.1 
0.1 0.1 0.1 0.1 0.1 0.1 0.1 0.1 0.1 
0.1 0.1 0.1 0.1 0.1 0.1 0.1 0.1 0.1 
0.1 0.1 0.1 0.1 0.1 0.1 0.1 0.1 0.1 
0.1 0.1 0.1 0.1 0.1 0.1 0.1 0.1 0.1 
0.1 0.1 0.1 0.1 0.1 0.1 0.1 0.1 0.1 
0.1 0.1 0.1 0.1 0.1 0.1 0.1 0.1 0.1 
0.1 0.1 0.1 0.1 
VECTORS vectors float
-0.0415386 0 -10.2533 -0.0415386 -10.2055 -0.0488254 -8.7231 0 -0.0488254 
0.0415386 -0.0488304 -10.2533 0.0415386 -10.2544 -0.0488254 8.7231 -10.2544 -10.2533 
-8.7231 10.2055 -10.2533 -8.7231 10.2544 -10.2533 -0.0415386 0.0488304 -10.2533 
8.7231 -10.2544 -10.2533 0.0415386 -0.0488304 -10.2533 8.7231 -0.0488304 -10.2533 
0 0 -9.76508 0 -9.71724 -9.76508 -8.26617 0 -9.76508 
8.26617 0 -9.76508 -8.7231 10.2544 -10.2533 -8.68156 10.2544 -10.2533 
0 0.0488304 -10.2533 8.68156 0.0488304 -10.2533 0 9.71724 -9.76508 
0 10.2544 -10.2533 0 -0.0488304 -9.76508 0 -9.76607 -0.0488254 
-8.26617 -9.76607 -9.76508 8.26617 -9.76607 -0.0488254 -0.0415386 -0.0488304 -9.76508 
-8.30771 -9.76607 -9.76508 -8.30771 -9.76607 -9.76508 0 0 -9.76508 
8.30771 -9.71724 0 0.0415386 0 -9.71626 8.30771 0 0 
-0.0415386 -10.2544 0.0488254 -8.7231 -0.0488304 0.0488254 0 -10.2544 0.0488254 
8.7231 -10.2544 -10.2533 0.0415386 -10.2544 -0.0488254 8.7231 -10.2544 -10.2533 
-0.0415386 -0.0488304 -9.76508 -8.30771 -9.76607 -9.76508 -8.30771 -9.76607 -9.76508 
0 -9.71724 -9.76508 0.0415386 0 -9.76508 8.30771 9.71724 -0.0488254 
8.30771 9.71724 0 -8.7231 10.2544 -10.2045 -8.7231 0.0488304 0 
8.7231 -0.0488304 -10.2533 8.7231 -10.2544 -10.2533 8.7231 -10.2544 -10.2533 
-0.0415386 -0.0488304 -9.76508 -8.30771 -9.76607 -9.76508 -8.30771 -0.0488304 -9.76508 
-8.26617 0 -9.76508 8.30771 0.0488304 -9.76508 8.30771 0.0488304 -0.0488254 
-8.7231 10.2544 0 -8.7231 10.2055 -10.2533 -8.7231 10.2055 -0.0488254 
8.68156 0 -10.2533 8.7231 -10.2544 -10.2533 0.0415386 -0.0488304 -10.2533 
8.7231 -0.0488304 -10.2533 -0.0415386 0 -9.76508 -8.30771 0 -9.76508 
0 0 -9.76508 0.0415386 9.76607 -9.76508 8.30771 9.76607 -0.0488254 
8.30771 9.76607 -0.0488254 -0.0415386 0.0488304 -10.2533 -8.7231 0.0488304 -0.0488254 
0 10.2544 -10.2533 0 0.0488304 -10.2533 0.0415386 0 -10.2533 
8.7231 0 -10.2533 -0.0415386 0.0488304 -9.76508 -8.30771 0.0488304 -9.76508 
0.0415386 0.0488304 -9.76508 8.30771 9.76607 -0.0488254 8.30771 9.76607 -0.0488254 
-0.0415386 10.2544 -0.0488254 0 10.2544 -10.2533 -8.68156 10.2544 -10.2533 
-8.68156 10.2544 -10.2533 0 0.0488304 -10.2533 8.68156 0.0488304 -10.2533 
-0.0415386 9.76607 -9.76508 0.0415386 9.76607 -9.76508 0 10.2544 -10.2533 
-8.30771 -9.76607 -9.76508 -0.0415386 -9.76607 -0.0488254 -8.30771 -9.76607 -9.76508 
0.0415386 -9.76607 0.0488254 8.30771 -0.0488304 0.0488254 -8.30771 -9.76607 -9.76508 
-8.30771 -9.76607 -9.76508 -8.30771 -9.76607 -0.0488254 8.30771 0 9.71626 
8.30771 0 9.76508 -0.0415386 -0.0488304 10.2533 -8.68156 -10.2544 10.2533 
-8.7231 -10.2544 10.2533 -0.0415386 -10.2544 0.0488254 8.7231 -10.2544 -10.2045 
0.0415386 -10.2544 0 8.7231 -10.2544 0 -8.30771 -9.76607 -9.76508 
-8.30771 -9.76607 -0.0488254 -8.30771 -9.76607 -9.76508 8.30771 0 0.0488254 
-8.7231 0.0488304 10.2045 -8.7231 -0.0488304 10.2533 -8.7231 -10.2544 10.2533 
8.7231 -10.2544 -10.2533 8.7231 -10.2544 -0.0488254 8.7231 -10.2544 -0.0488254 
-8.30771 -0.0488304 -9.76508 -8.30771 -9.76607 -9.76508 -8.30771 -9.76607 -9.76508 
8.30771 0.0488304 0.0488254 -8.7231 0 0.0488254 8.7231 -0.0488304 -10.2533 
8.7231 -10.2544 -0.0488254 8.7231 -10.2544 -0.0488254 -0.0415386 -0.0488304 -9.76508 
-8.30771 -9.76607 -9.76508 -8.30771 -0.0488304 -9.76508 -8.26617 0 -9.76508 
8.30771 9.76607 0.0488254 8.30771 9.76607 0.0488254 -8.7231 0.0488304 0.0488254 
8.68156 0 -10.2533 8.7231 -10.2544 -0.0488254 0.0415386 -0.0488304 -10.2533 
8.7231 -0.0488304 -0.0488254 -0.0415386 0 -9.76508 -8.30771 0 -9.76508 
-8.26617 0 -9.76508 8.30771 9.71724 0 8.30771 9.76607 0.0488254 
-8.7231 10.2544 0.0488254 -0.0415386 10.2544 -10.2045 -8.7231 10.2544 0 
-8.68156 10.2544 -10.2533 8.68156 0 -10.2533 0.0415386 0 -10.2533 
8.7231 0 -10.2533 -0.0415386 0.0488304 -9.76508 -8.30771 0.0488304 -9.76508 
0 0.0488304 -9.76508 0 9.76607 -9.76508 0.0415386 9.76607 -9.76508 
8.30771 0.0488304 -0.0488254 -0.0415386 10.2544 -10.2045 -8.68156 10.2544 -10.2533 
-0.0415386 10.2544 -10.2533 -8.7231 10.2544 -10.2533 0 0.0488304 -10.2533 
0.0415386 0.0488304 -10.2533 8.7231 0.0488304 -10.2533 -0.0415386 9.76607 -9.76508 
0 9.76607 -9.76508 0 9.76607 -9.76508 0.0415386 9.76607 -9.76508 
-0.0415386 10.2544 -0.0488254 0 10.2544 -10.2533 0.0415386 10.2544 -10.2533 
-0.0415386 -0.0488304 -10.2533 -0.0415386 -10.2544 -10.2533 -8.7231 -0.0488304 -10.2533 
0 -0.0488304 -10.2533 0 -10.2544 -10.2533 0.0415386 0 -10.2533 
0.0415386 -10.2055 -10.2533 8.7231 0 -0.0488254 -0.0415386 0.0488304 -10.2533 
-8.7231 0.0488304 -10.2533 0.0415386 0.0488304 -10.2533 8.7231 10.2544 -0.0488254 
8.7231 10.2055 -0.0488254 -0.0415386 10.2544 -0.0488254 0.0415386 10.2544 -0.0488254 
-8.30771 -9.76607 -9.71626 -0.0415386 -9.76607 0 -8.30771 -0.0488304 0 
0.0415386 -9.76607 0.0488254 8.30771 -0.0488304 9.76508 8.30771 -0.0488304 9.76508 
-8.30771 -9.71724 -9.71626 8.30771 0 9.76508 8.30771 0 9.76508 
-0.0415386 -0.0488304 10.2533 0.0415386 -10.2544 10.2045 -8.30771 -9.76607 -9.76508 
-0.0415386 -9.76607 -0.0488254 -8.30771 -9.76607 -0.0488254 -8.26617 -9.76607 -9.71626 
8.30771 0 9.76508 8.30771 0 9.71626 -0.0415386 -0.0488304 10.2533 
-8.68156 -10.2055 10.2533 -8.7231 -10.2544 10.2045 -0.0415386 -10.2544 10.2045 
0.0415386 -10.2544 0 8.7231 -10.2544 0 -8.30771 -9.76607 -9.76508 
-8.30771 -9.76607 -0.0488254 -8.30771 -9.76607 -9.76508 8.30771 0.0488304 9.76508 
8.30771 0.0488304 9.76508 -8.7231 0 10.2533 -8.7231 0 10.2533 
-8.7231 -10.2055 10.2533 8.7231 -10.2544 0 8.7231 -10.2544 -10.2045 
-8.30771 -0.0488304 -9.76508 -8.30771 -9.76607 -9.76508 -8.30771 -9.76607 -9.76508 
8.30771 9.76607 9.76508 8.30771 9.71724 9.71626 8.30771 9.76607 9.76508 
-0.0415386 0.0488304 10.2533 -8.7231 10.2055 10.2533 -8.68156 10.2055 10.2533 
-8.7231 10.2055 10.2533 8.7231 -10.2544 -10.2045 8.7231 -10.2544 -10.2045 
-0.0415386 -0.0488304 -9.76508 -8.30771 -9.76607 -9.76508 -8.30771 -0.0488304 -0.0488254 
-8.26617 0 -9.76508 8.30771 0 0 -8.7231 -10.1567 10.2045 
-8.7231 -10.2055 10.2533 8.7231 -10.2544 -10.2533 8.7231 -0.0488304 -10.2533 
8.7231 -0.0488304 -0.0488254 -0.0415386 0 -9.76508 -8.30771 0 -9.76508 
-8.26617 0 -9.76508 8.30771 0 0 -8.7231 -10.2055 10.2045 
-8.7231 0 0 -0.0415386 10.2055 -10.2045 -8.68156 10.2055 -10.2045 
8.7231 0 -10.2533 8.7231 0 -10.2533 -0.0415386 0.0488304 -9.76508 
-8.30771 0.0488304 -9.76508 0 0 -9.76508 0 9.71724 -9.76508 
0 9.76607 -9.76508 0 9.76607 -9.76508 0.0415386 9.76607 -9.76508 
8.30771 0.0488304 -0.0488254 -8.7231 10.2055 0 -8.68156 10.2544 0 
0 0.0488304 -10.2045 0 10.2544 -10.2045 0 10.2544 -10.2045 
-0.0415386 10.2544 -10.2533 -0.0415386 10.2544 -10.2533 0 10.2544 -10.2533 
0.0415386 0.0488304 -10.2533 8.7231 0.0488304 -10.2533 -8.30771 9.76607 -9.76508 
-8.30771 9.76607 -9.76508 -0.0415386 0.0488304 -9.76508 0.0415386 0.0488304 -9.76508 
8.30771 9.76607 -9.76508 8.26617 9.76607 -9.76508 0 9.76607 -9.76508 
0.0415386 9.76607 -0.0488254 0 10.2544 -10.2045 -0.0415386 10.2544 -10.2533 
0 10.2544 -10.2533 0.0415386 10.2544 -10.2533 -0.0415386 9.76607 -9.76508 
0.0415386 9.76607 -9.76508 -0.0415386 -0.0488304 -10.2533 -0.0415386 -10.2544 -10.2533 
-8.7231 -10.2544 -0.0488254 0 -0.0488304 -10.2533 0 -10.2544 -10.2533 
0.0415386 -0.0488304 -10.2533 0.0415386 -10.2544 -10.2533 8.7231 -0.0488304 -10.2533 
0 0 -9.76508 0 -9.71724 -9.76508 -8.26617 0 -9.76508 